LAMMPS data file generated with LigParGen (israel.cabezadevaca@yale.edu)

       3 atoms
       2 bonds
       1 angles
       0 dihedrals
       3 atom types
       2 bond types
       1 angle types
       0 dihedral types

    0.000000    50.000000 xlo xhi
    0.000000    50.000000 ylo yhi
    0.000000    50.000000 zlo zhi

Masses

       1     15.999
       2      1.008
       3      1.008

Pair Coeffs

       1      0.155  3.1536500
       2      0.000  0.0000000
       3      0.000  0.0000000

Bond Coeffs

       1   553.0000     0.9450
       2   553.0000     0.9450

Angle Coeffs

       1     62.500     82.120

Dihedral Coeffs


Atoms

     1      1      1  -0.828553 10.02000 17.96200 20.41400
     2      1      2   0.414276 10.01000 18.85000 20.89600
     3      1      3   0.414277 10.87100 17.45700 20.64700

Bonds

     1      1      2      1
     2      2      3      1

Angles

     1      1      3      1      2

Dihedrals



