Untitled

6 atoms
5 bonds
7 angles
3 dihedrals
0 impropers

4 atom types
5 bond types
7 angle types
3 dihedral types

 -0.5400000  69.4600000 xlo xhi
 -0.4650000  69.5350000 ylo yhi
 -0.8900000  69.1100000 zlo zhi
  0.0000000   0.0000000   0.0000000 xy xz yz

Masses

1  12.0100000
2  16.0000000
3   1.0080000
4   1.0080000

Bond Coeffs

1 harmonic    3.16700000e+02    1.42330000e+00
2 harmonic    3.30600000e+02    1.09690000e+00
3 harmonic    3.30600000e+02    1.09690000e+00
4 harmonic    3.30600000e+02    1.09690000e+00
5 harmonic    3.71400000e+02    9.73000000e-01

Angle Coeffs

1 harmonic    4.74000000e+01    1.07260046e+02
2 harmonic    5.09000000e+01    1.10260047e+02
3 harmonic    5.09000000e+01    1.10260047e+02
4 harmonic    5.09000000e+01    1.10260047e+02
5 harmonic    3.92000000e+01    1.08460047e+02
6 harmonic    3.92000000e+01    1.08460047e+02
7 harmonic    3.92000000e+01    1.08460047e+02

Dihedral Coeffs

1 multi/harmonic    1.66666659e-01   -4.99999976e-01    0.00000000e+00    6.66666635e-01    0.00000000e+00
2 multi/harmonic    1.66666659e-01   -4.99999976e-01    0.00000000e+00    6.66666635e-01    0.00000000e+00
3 multi/harmonic    1.66666659e-01   -4.99999976e-01    0.00000000e+00    6.66666635e-01    0.00000000e+00

Atoms

     1      1      1 0.11670000    0.0000000    0.0000000    0.0000000
     2      1      2 -0.59880000    1.4300000    0.0000000    0.0000000
     3      1      3 0.02870000   -0.5400000    0.9300000    0.0000000
     4      1      3 0.02870000   -0.5400000   -0.4650000    0.8900000
     5      1      3 0.02870000   -0.5400000   -0.4650000   -0.8900000
     6      1      4 0.39600000    1.9300000    0.0000000    0.0000000

Velocities

     1   0.0000000   0.0000000   0.0000000
     2   0.0000000   0.0000000   0.0000000
     3   0.0000000   0.0000000   0.0000000
     4   0.0000000   0.0000000   0.0000000
     5   0.0000000   0.0000000   0.0000000
     6   0.0000000   0.0000000   0.0000000

Bonds

     1      1 1 2
     2      2 1 3
     3      3 1 4
     4      4 1 5
     5      5 2 6

Angles

     1      1 1 2 6
     2      2 2 1 3
     3      3 2 1 4
     4      4 2 1 5
     5      5 3 1 4
     6      6 3 1 5
     7      7 4 1 5

Dihedrals

     1      1 3 1 2 6
     2      2 4 1 2 6
     3      3 5 1 2 6
